name,smiles,homo,lumo,gap
Y6,CCC(CCCC)CN1C2=C(SC3=C2SC(/C=C(C(C4=C5C=C(F)C(F)=C4)=O)/C5=C(C#N)\C#N)=C3CCCCCCCCCCC)C6=C1C(N(CC(CCCC)CC)C7=C8SC9=C7SC(/C=C(C(C%10=C%11C=C(F)C(F)=C%10)=O)/C%11=C(C#N)\C#N)=C9CCCCCCCCCCC)=C8C%12=NSN=C6%12,-0.1541935200325562,0.1102074748400965,0.26440099487265273
A1,CCCCCCC1=CC=C(C(C2=CC=C(C=C2)CCCCCC)(C3=C4C=C(C5=C3)C(C6=CC=C(C=C6)CCCCCC)(C7C5SC(C8=C9C(SC(C(OCC)=O)=C9)=C(C%10=NSN=C%108)/C=C(C%11=O)\SC(N%11CCCCCCCC)=S)=C7)C%12=CC=C(C=C%12)CCCCCC)C%13C4SC(C%14=C%15C(SC(C(OCC)=O)=C%15)=C(C%16=NSN=C%16%14)/C=C(C%17=O)\SC(N%17CCCCCCCC)=S)=C%13)C=C1,-0.18471836629154945,0.10050389058467635,0.2852222568762258
A2,CCCCCCC1=CC=C(C(C2=CC=C(C=C2)CCCCCC)(C3=C4C=C(C5=C3)C(C6=CC=C(C=C6)CCCCCC)(C7C5SC(C8=C9C(SC(C(OCC)=O)=C9)=C(C%10=NSN=C%108)/C=C(C%11=O)\S/C(N%11CCCCCCCC)=C(C#N)\C#N)=C7)C%12=CC=C(C=C%12)CCCCCC)C%13C4SC(C%14=C%15C(SC(C(OCC)=O)=C%15)=C(C%16=NSN=C%16%14)/C=C(C%17=O)\S/C(N%17CCCCCCCC)=C(C#N)\C#N)=C%13)C=C1,-0.19246491413065953,0.09067461556736107,0.2831395296980206
DPP1,CCCCCCCCC1(CCCCCCCC)C2=C(C=CC(C3=CC=C(C(N(CC(CCCC)CC)C4=O)=C5C4=C(C6=CC=CS6)N(CC(CCCC)CC)C5=O)S3)=C2)C7=CC=C(C8=CC=C(S8)C(N9CC(CCCC)CC)=C%10C(N(CC(CCCC)CC)C(C%11=CC=CS%11)=C%10C9=O)=O)C=C71,-0.1679060534404029,0.142629250155495,0.31053530359589787
FRdCN2,O=C1/C(S/C(N1CCCCCC)=C(C#N)\C#N)=C/C2=CC=C(C3=CC=C(C4=CC=C(C(C=CC(C5=CC=C(C6=CC=C(/C=C(S/C(N7CCCCCC)=C(C#N)/C#N)/C7=O)O6)C8=NSN=C58)=C9)=C9C%10(CC(CCCC)CC)CC(CCCC)CC)C%10=C4)C%11=NSN=C3%11)O2,-0.18502029116067473,0.11016665716252878,0.2951869483232035
IM-IDT3,CCCCCCC1=CC=C(C=C1)C(C2=C3C=C(C(C4C5SC(C6=CC(C7S6)C(C8=CC=C(CCCCCC)C=C8)(C9=C7C=C(C(C%10C%11SC(/C=C(C(C%12=C%13C=CC=C%12)=O)\C%13=C(C#N)/C#N)=C%10)(C%14=CC=C(CCCCCC)C=C%14)C%15=CC=C(CCCCCC)C=C%15)C%11=C9)C(C=C%16)=CC=C%16CCCCCC)=C4)(C%17=CC=C(CCCCCC)C=C%17)C%18=CC=C(CCCCCC)C=C%18)C5=C2)(C%19C3SC(C%20=CC(C%21S%20)C(C%22=CC=C(CCCCCC)C=C%22)(C%23=CC=C(CCCCCC)C=C%23)C(C%21=C%24)=CC%25=C%24C(C%26=CC=C(CCCCCC)C=C%26)(C%27C%25SC(/C=C(C(C%28=C%29C=CC=C%28)=O)\C%29=C(C#N)/C#N)=C%27)C(C=C%30)=CC=C%30CCCCCC)=C%19)C%31=CC=C(CCCCCC)C=C%31,-0.2073275381939314,0.12425924388508831,0.3315867820790197
IM-BDTIDT2,CCCCCCC1=CC=C(C=C1)C(C2=C3C=C(C(C4C5SC(/C=C(C(C6=C7C=CC=C6)=O)\C7=C(C#N)/C#N)=C4)(C8=CC=C(CCCCCC)C=C8)C9=CC=C(CCCCCC)C=C9)C5=C2)(C%10C3SC(C%11=CC%12=C(C%13=CC=C(CC(CCCC)CC)S%13)C%14=C(C=C(C%15=CC(C%16S%15)C(C%17=CC=C(CCCCCC)C=C%17)(C%18=CC=C(CCCCCC)C=C%18)C(C%16=C%19)=CC%20=C%19C(C%21=CC=C(CCCCCC)C=C%21)(C%22C%20SC(/C=C(C(C%23=C%24C=CC=C%23)=O)\C%24=C(C#N)/C#N)=C%22)C(C=C%25)=CC=C%25CCCCCC)S%14)C(C%26=CC=C(CC(CCCC)CC)S%26)=C%12S%11)=C%10)C%27=CC=C(CCCCCC)C=C%27,-0.1546973872472369,0.12414707998972371,0.2788444672369606
ITIC-Th,O=C1C2=C(C(/C1=C/C3=CC4=C(C(C(C5=C6C=C(C7=C5)C(C8=CC=C(S8)CCCCCC)(C9=CC=C(S9)CCCCCC)C%10C7SC%11=C%10SC(/C=C(/C%12=C(C#N)\C#N)C(C%13=C%12C=CC=C%13)=O)=C%11)(C%14=CC=C(S%14)CCCCCC)C%15=CC=C(S%15)CCCCCC)C6S4)S3)=C(C#N)/C#N)C=CC=C2,-0.20861318672608323,0.11836194003241389,0.3269751267584971
ITIC-Th1,O=C1C(C=CC(F)=C2)=C2/C(C1=CC(S3)=CC4=C3C(C5S4)C(C6=CC=C(CCCCCC)S6)(C7=C5C=C(C(C8C9SC%10=C8SC(C=C(C(C%11=C/%12C=C(F)C=C%11)=O)C%12=C(C#N)/C#N)=C%10)(C%13=CC=C(CCCCCC)S%13)C%14=CC=C(CCCCCC)S%14)C9=C7)C%15=CC=C(CCCCCC)S%15)=C(C#N)/C#N,-0.20949803100361655,0.11258996717990388,0.3220879981835204
ITIC-Th2,O=C1C(C=C(F)C(F)=C2)=C2/C(C1=CC(S3)=CC4=C3C(C5S4)C(C6=CC=C(CCCCCC)S6)(C7=C5C=C(C(C8C9SC%10=C8SC(C=C(C(C%11=C/%12C=C(F)C(F)=C%11)=O)C%12=C(C#N)/C#N)=C%10)(C%13=CC=C(CCCCCC)S%13)C%14=CC=C(CCCCCC)S%14)C9=C7)C%15=CC=C(CCCCCC)S%15)=C(C#N)/C#N,-0.21011341565681194,0.1085159664106701,0.31862938206748204
ITIC-Th3,O=C1C(C=CC(OC)=C2)=C2/C(C1=CC(S3)=CC4=C3C(C5S4)C(C6=CC=C(CCCCCC)S6)(C7=C5C=C(C(C8C9SC%10=C8SC(C=C(C(C%11=C/%12C=C(OC)C=C%11)=O)C%12=C(C#N)/C#N)=C%10)(C%13=CC=C(CCCCCC)S%13)C%14=CC=C(CCCCCC)S%14)C9=C7)C%15=CC=C(CCCCCC)S%15)=C(C#N)/C#N,-0.2077798636601769,0.1149023346423004,0.3226821983024773
ITIC,CCCCCCC1=CC=C(C=C1)C(C2=C3C=C(C(C4C5SC6=C4SC(C=C(C(C7=C/8C=CC=C7)=O)C8=C(C#N)/C#N)=C6)(C9=CC=C(CCCCCC)C=C9)C%10=CC=C(CCCCCC)C=C%10)C5=C2)(C%11C3SC%12=C%11SC(C=C(C(C%13=C/%14C=CC=C%13)=O)C%14=C(C#N)/C#N)=C%12)C%15=CC=C(CCCCCC)C=C%15,-0.210154080395332,0.11330564232785133,0.32345972272318335
pO-ITIC,CCCCCCOC(C=C1)=CC=C1C(C2C3SC4=C2SC(C=C(C(C5=C/6C=CC=C5)=O)C6=C(C#N)/C#N)=C4)(C7=CC=C(OCCCCCC)C=C7)C(C3=C8)=CC9=C8C(C%10=CC=C(OCCCCCC)C=C%10)(C%11C9SC%12=C%11SC(C=C(C(C%13=C/%14C=CC=C%13)=O)C%14=C(C#N)/C#N)=C%12)C(C=C%15)=CC=C%15OCCCCCC,-0.20757418734688593,0.11823715795344764,0.32581134530033357
mO-ITIC,CCCCCCOC1=CC(C(C2C3SC4=C2SC(C=C(C(C5=C/6C=CC=C5)=O)C6=C(C#N)/C#N)=C4)(C7=CC(OCCCCCC)=CC=C7)C(C3=C8)=CC9=C8C(C%10=CC=CC(OCCCCCC)=C%10)(C%11C9SC%12=C%11SC(C=C(C(C%13=C/%14C=CC=C%13)=O)C%14=C(C#N)/C#N)=C%12)C%15=CC(OCCCCCC)=CC=C%15)=CC=C1,-0.21086464771855054,0.10871781454575254,0.3195824622643031
FBM,CCCCCCCCC1(CCCCCCCC)C2=C(C=CC(C3=CC=C(C=C(C#N)C#N)C4=NSN=C34)=C2)C5=CC=C(C6=CC=C(C=C(C#N)C#N)C7=NSN=C67)C=C51,-0.21345860392349628,0.09837886472023626,0.3118374686437325
CBM,CCCCCCCCC(CCCCCCCC)N1C2=C(C=CC(C3=CC=C(C=C(C#N)C#N)C4=NSN=C34)=C2)C5=CC=C(C6=CC=C(C=C(C#N)C#N)C7=NSN=C67)C=C51,-0.20644454546122434,0.10086015896629134,0.3073047044275157
CDTBM,CCCCCCCCC(C1=C2SC(C3=CC=C(C=C(C#N)C#N)C4=NSN=C34)=C1)(CCCCCCCC)C5=C2SC(C6=CC=C(C=C(C#N)C#N)C7=NSN=C67)=C5,-0.1801034899697334,0.08903360384891165,0.26913709381864503
FpO-ITIC,CCCCCCOC1=CC=C(C(C(C=C2F)=CC=C2OCCCCCC)(C3=CC4=C(C(C5C4SC6=C5SC(/C=C(/C7=C(C#N)/C#N)C(C8=C7C=CC=C8)=O)=C6)(C9=CC(F)=C(OCCCCCC)C=C9)C%10=CC=C(C(F)=C%10)OCCCCCC)C=C3%11)C%12C%11SC%13=C%12SC(/C=C(/C%14=C(C#N)/C#N)C(C%15=C%14C=CC=C%15)=O)=C%13)C(F)=C1,-0.20926891563393954,0.11695087729936487,0.3262197929333044
4TIC,CCCCCCC(C=C1)=CC=C1C2(C3=CC=C(CCCCCC)C=C3)C4=C(SC(/C=C(C(C5=C6C=CC=C5)=O)\C6=C(C#N)/C#N)=C4)C7=C2C(S8)=C(S7)C9=C8C%10=C(C9(C%11=CC=C(CCCCCC)C=C%11)C%12=CC=C(CCCCCC)C=C%12)C=C(C=C(C(C%13=C/%14C=CC=C%13)=O)C%14=C(C#N)/C#N)S%10,-0.15963421283283777,0.11447817789431253,0.2741123907271503
6TIC,CCCCCCC(C=C1)=CC=C1C2(C3=CC=C(CCCCCC)C=C3)C4=C(SC5=C4SC(/C=C(C(C6=C7C=CC=C6)=O)\C7=C(C#N)/C#N)=C5)C8=C2C(S9)=C(S8)C%10=C9C%11=C(C%10(C%12=CC=C(CCCCCC)C=C%12)C%13=CC=C(CCCCCC)C=C%13)C%14=C(C=C(/C=C(C(C%15=C%16C=CC=C%15)=O)/C%16=C(C#N)\C#N)S%14)S%11,-0.1414252853741343,0.11732007970755633,0.2587453650816906
BDCPDT-IC,CCCCCCC(C=C1)=CC=C1C(C2=CC=C(C=C2)CCCCCC)(C3=C4SC(C=C(C(C5=C/6C=CC=C5)=O)C6=C(C#N)/C#N)=C3)C7C4SC8=CC9=C(SC%10C9C(C%11=CC=C(C=C%11)CCCCCC)(C%12=C%10SC(C=C(/C(C%13=C%14C=CC=C%13)=C(C#N)/C#N)C%14=O)=C%12)C%15=CC=C(C=C%15)CCCCCC)C=C87,-0.2034109309875033,0.11976703644289478,0.32317796743039806
ITCPTC,O=C1C2=CSC=C2C(/C1=C/C3=CC4=C(C(C(C5=C6C=C(C7=C5)C(C8=CC=C(CCCCCC)C=C8)(C9=CC=C(CCCCCC)C=C9)C%10C7SC%11=C%10SC(/C=C%12C(C%13=CSC=C%13C\%12=C(C#N)\C#N)=O)=C%11)(C%14=CC=C(CCCCCC)C=C%14)C%15=CC=C(CCCCCC)C=C%15)C6S4)S3)=C(C#N)/C#N,-0.20702575838653037,0.12089036198364189,0.32791612037017226
BT-IC,CCCCCCC(C=C1)=CC=C1C(C2=CC=C(C=C2)CCCCCC)(C3=C4SC(C=C(C(C5=C/6C=CC=C5)=O)C6=C(C#N)/C#N)=C3)C7C4SC(C7=C8OC9=CC=C(C=C9)CC(CC)CCCCCC)=C(C%10=C8SC%11C%10C(C%12=CC=C(C=C%12)CCCCCC)(C%13=C%11SC(C=C(C(C%14=C/%15C=CC=C%14)=O)C%15=C(C#N)/C#N)=C%13)C%16=CC=C(C=C%16)CCCCCC)OC%17=CC=C(C=C%17)CC(CC)CCCCCC,-0.20332217188451135,0.11913962059210045,0.3224617924766118
DC-IDT2T,CCCCCCC1=CC=C(C(C2=CC=C(C=C2)CCCCCC)(C3=C4C=C(C5=C3)C(C6=CC=C(C=C6)CCCCCC)(C7C5SC(C8=CC=C(/C=C(C(C9=C%10C=CC=C9)=O)/C%10=C(C#N)\C#N)S8)=C7)C%11=CC=C(C=C%11)CCCCCC)C%12C4SC(C%13=CC=C(C=C(C(C%14=C/%15C=CC=C%14)=O)C%15=C(C#N)/C#N)S%13)=C%12)C=C1,-0.19937098110246454,0.12016224047469905,0.3195332215771636
DICTF,CCCCCCCCC1(C2=C(C3=CC=C(C4=CC=C(C=C(C(C5=C/6C=CC=C5)=O)C6=C(C#N)/C#N)S4)C=C31)C=CC(C7=CC=C(/C=C(C(C8=C9C=CC=C8)=O)\C9=C(C#N)/C#N)S7)=C2)CCCCCCCC,-0.1964662296414163,0.11369118547017033,0.3101574151115866
ATT-1,CCCCCCC1=CC=C(C(C2=CC=C(C=C2)CCCCCC)(C3=C4C=C(C5=C3)C(C6=CC=C(C=C6)CCCCCC)(C7C5SC(C8=C9C(C=C(S9)C(OCCCCCCCC)=O)=C(/C=C(C%10=O)/S/C(N%10CC)=C(C#N)\C#N)S8)=C7)C%11=CC=C(C=C%11)CCCCCC)C%12C4SC(C%13=C%14SC(C(OCCCCCCCC)=O)=CC%14=C(/C=C(C%15=O)\S/C(N%15CC)=C(C#N)\C#N)S%13)=C%12)C=C1,-0.18549209261774857,0.11586779879767453,0.3013598914154231
BAF-2HDT,CCCCCCCCCCC1(C2=C(C3=CC=C(C4=CC=C(/C=C5SC(SCCCCCC)=C(S/5)SCCCCCC)C6C4N=S=N6)C=C31)C=CC(C7=CC=C(/C=C8SC(SCCCCCC)=C(S/8)SCCCCCC)C9C7N=S=N9)=C2)CCCCCCCCCC,-0.19247637547910815,0.18709045958326195,0.3795668350623701
IDIDT-C8,CCCCCCCCC1(C2=C(C3=C1C4=C(C5=C(C4(CCCCCCCC)CCCCCCCC)C=C(C6=CC=C(C=C(/C(C7=C8C=CC=C7)=C(C#N)/C#N)C8=O)S6)C=C5)S3)C=CC(C9=CC=C(C=C(C(C%10=C/%11C=CC=C%10)=O)C%11=C(C#N)/C#N)S9)=C2)CCCCCCCC,-0.17414100483032885,0.11619652403849898,0.2903375288688278
BTA2,CCCCCCC1=CC=C(C(C2=CC=C(C=C2)CCCCCC)(C3=C4C=C(C5=C3)C(C6=CC=C(C=C6)CCCCCC)(C7C5SC(C8=CC=C(/C=C(C9=O)/SC(N9CC)=O)C%10=NN(N=C8%10)CCCCCCCC)=C7)C%11=CC=C(C=C%11)CCCCCC)C%12C4SC(C%13=CC=C(/C=C(C%14=O)/SC(N%14CC)=O)C%15=NN(CCCCCCCC)N=C%13%15)=C%12)C=C1,-0.19261868430055465,0.15464386591921409,0.3472625502197687
DCI-2,CCCCCCCCC(N(C1=C2SC(C3=C(C=C(C4=C(C=C(/C=C(C(C5=C6C=CC=C5)=O)/C6=C(C#N)/C#N)S4)CCCCCC)S3)CCCCCC)=C1)C7=C2SC(C8=C(C=C(C9=C(C=C(/C=C(C(C%10=C%11C=CC=C%10)=O)/C%11=C(C#N)\C#N)S9)CCCCCC)S8)CCCCCC)=C7)CCCCCCCC,-0.15362033774058265,0.11645254228186644,0.2700728800224491
Cz-IN,CCCCCCCCC(N1C2=C(C3=CC=C(C4=CC=C(C=C(C(C5=C6C=CC=C5)=O)C6=O)S4)C=C31)C=CC(C7=CC=C(C=C(C(C8=C9C=CC=C8)=O)C9=O)S7)=C2)CCCCCCCC,-0.18089817005469433,0.14609147544663076,0.3269896455013251
Cz-ECA,CCCCCCCCC(N1C2=C(C3=CC=C(C4=CC=C(/C=C(C(OC)=O)\C#N)S4)C=C31)C=CC(C5=CC=C(/C=C(C#N)/C(OC)=O)S5)=C2)CCCCCCCC,-0.19173285467745185,0.13117655547693216,0.322909410154384
DTCC-IC,CCCCCCCCN1C2=C(C3=CC4=C(C=C31)C5=C(C4(C6=CC=C(OCCCCCCCC)C=C6)C7=CC=CC(OCCCCCCCC)=C7)C=C(C=C(C(C8=C/9C=CC=C8)=O)C9=C(C#N)/C#N)S5)C=C(C%10=C2)C(C%11=CC=C(OCCCCCCCC)C=C%11)(C%12=C%10SC(/C=C(C(C%13=C%14C=CC=C%13)=O)\C%14=C(C#N)/C#N)=C%12)C%15=CC=C(OCCCCCCCC)C=C%15,-0.1790396127630609,0.11688144383315477,0.2959210565962157
DTNIC6,CCCCCCC1(C2=C(C3=C4C(C5=C(C=C4)C(CCCCCC)(CCCCCC)C6=C5SC(/C=C(C(C7=C8C=CC=C7)=O)\C8=C(C#N)/C#N)=C6)=CC=C31)SC(C=C(C(C9=C/%10C=CC=C9)=O)C%10=C(C#N)/C#N)=C2)CCCCCC,-0.17520613847575484,0.1155377645772272,0.29074390305298203
DTNIC8,O=C1C2=C(C(/C1=C\C3=CC4=C(S3)C(C5=CC=C(C(CC(CCCCCC)CC)(C6=C7SC(C=C(C(C8=C/9C=CC=C8)=O)C9=C(C#N)/C#N)=C6)CC(CC)CCCCCC)C7=C5C=C%10)=C%10C4(CC(CCCCCC)CC)CC(CCCCCC)CC)=C(C#N)/C#N)C=CC=C2,-0.17752437233824203,0.11200804230949805,0.2895324146477401
Cz-RH,CCCCCCCCC(N1C2=C(C3=CC=C(C4=CC=C(/C=C(C5=O)\SC(N5CC)=S)S4)C=C31)C=CC(C6=CC=C(/C=C(C7=O)\SC(N7CC)=S)S6)=C2)CCCCCCCC,-0.17950298806365536,0.14668452831609285,0.3261875163797482
Flu-IN,CCCCCCCCC1(C2=C(C3=CC=C(C4=CC=C(/C=C5C(C6=C(C\5=O)C=CC=C6)=O)S4)C=C31)C=CC(C7=CC=C(/C=C8C(C9=C(C\8=O)C=CC=C9)=O)S7)=C2)CCCCCCCC,-0.18583431582570803,0.14349182553821324,0.32932614136392124
Flu-ECA,CCCCCCCCC1(C2=C(C3=CC=C(C4=CC=C(/C=C(C#N)\C(OC)=O)S4)C=C31)C=CC(C5=CC=C(/C=C(C#N)\C(OC)=O)S5)=C2)CCCCCCCC,-0.20153930115163465,0.13439160824978366,0.33593090940141834
Flu-RH,CCN1C(S/C(C1=O)=C\C2=CC=C(C3=CC(C4(CCCCCCCC)CCCCCCCC)=C(C5=CC=C(C6=CC=C(/C=C(C7=O)\SC(N7CC)=S)S6)C=C54)C=C3)S2)=S,-0.18403747070030185,0.1452007296268866,0.3292382003271884
DTPC-IC,CCCCCCC(CN1C2=CC3=C4C5=C2C6=C7C8=C(C(C9=CC=C(C=C9)CCCCCC)(C%10C(SC(/C=C(C(C%11=C%12C=CC=C%11)=O)\C%12=C(C#N)/C#N)=C%10)=C8C=C61)C%13=CC=C(C=C%13)CCCCCC)C=CC7=C5CC=C4C(C%14=CC=C(C=C%14)CCCCCC)(C%15=C3SC(C=C(C(C%16=C/%17C=CC=C%16)=O)C%17=C(C#N)/C#N)=C%15)C%18=CC=C(C=C%18)CCCCCC)CCCCCCCC,-0.1104339550230264,0.10867000834983194,0.21910396337285834
ITTIC,CCCCCCC(C=C1)=CC=C1C(C2=CC=C(C=C2)CCCCCC)(C3C4SC5=C3SC(C6=CC=C(/C=C7C(C8=C(C\7=C(C#N)/C#N)C=CC=C8)=O)S6)=C5)C(C4=C9)=CC%10=C9C(C%11=CC=C(C=C%11)CCCCCC)(C%12=CC=C(C=C%12)CCCCCC)C(C%10S%13)C(S%14)=C%13C=C%14C%15=CC=C(/C=C(C(C%16=C%17C=CC=C%16)=O)/C%17=C(C#N)/C#N)S%15,-0.19332592778840305,0.11511158368361234,0.30843751147201537
FTB,CCCCCCCCC1(C2=C(C3=CC=C(C4=CC=C(/C=C(C5=O)/C(N(C(N5C)=O)C)=O)S4)C=C31)C=CC(C6=CC=C(/C=C(C7=O)/C(N(C(N7C)=O)C)=O)S6)=C2)CCCCCCCC,-0.19155424910464683,0.14140593164129253,0.33296018074593936
FDICTF,CCCCCCCCC1(C2=C(C3=CC4=C(C=C31)C5=C(C4(CCCCCCCC)CCCCCCCC)C=C(C=C(C(C6=C/7C=CC=C6)=O)C7=C(C#N)/C#N)S5)C=C(C8=C2)C(CCCCCCCC)(C9=C8SC(C=C(C(C%10=C/%11C=CC=C%10)=O)C%11=C(C#N)/C#N)=C9)CCCCCCCC)CCCCCCCC,-0.1808050804979079,0.11574682937018131,0.2965519098680892
D5T6F-M,FC1=C(C2=C(C(F)=C(C3=C(C(F)=C(/C=C(C#N)/C#N)S3)CCCCCC)S2)CCCCCC)SC(C4=C(C(F)=C(C5=C(C(F)=C(/C=C(C#N)\C#N)S5)CCCCCC)S4)CCCCCC)=C1F,-0.1994790865152402,0.12140209358668777,0.320881180101928
D7T8F-M,FC1=C(C2=C(C(F)=C(C3=C(C(F)=C(C4=C(C(F)=C(/C=C(C#N)/C#N)S4)CCCCCC)S3)CCCCCC)S2)CCCCCC)SC(C5=C(C(F)=C(C6=C(C(F)=C(C7=C(C(F)=C(/C=C(C#N)/C#N)S7)CCCCCC)S6)CCCCCC)S5)CCCCCC)=C1F,-0.19819388792824702,0.12856046103594057,0.3267543489641876
F-H,CCCCCCCCC1(C2=C(C3=CC4=C(C=C31)C5=C(C4(CCCCCCCC)CCCCCCCC)C=C(C=C(C(C6=C/7C=CC=C6)=O)C7=C(C#N)/C#N)S5)C=C(C8=C2)C(CCCCCCCC)(C9=C8SC(C=C(C(C%10=C/%11C=CC=C%10)=O)C%11=C(C#N)/C#N)=C9)CCCCCCCC)CCCCCCCC,-0.1808050804979213,0.11574682937016834,0.29655190986808966
IDTT(TCV)2,CCCCCCC1=CC=C(C(C2=CC=C(C=C2)CCCCCC)(C3=C4C=C(C5=C3)C(C6=CC=C(C=C6)CCCCCC)(C7C5SC(C8=CC=C(/C(C#N)=C(C#N)\C#N)S8)=C7)C9=CC=C(C=C9)CCCCCC)C%10C4SC(C%11=CC=C(/C(C#N)=C(C#N)\C#N)S%11)=C%10)C=C1,-0.22589617228810505,0.10079598698847192,0.32669215927657697
IDTCR,CCCCCCC1=CC=C(C(C2=CC=C(C=C2)CCCCCC)(C3=C4C=C(C5=C3)C(C6=CC=C(C=C6)CCCCCC)(C7C5SC(C8=CC=C(/C=C(C9=O)\S/C(N9CC)=C(C#N)\C#N)S8)=C7)C%10=CC=C(C=C%10)CCCCCC)C%11C4SC(C%12=CC=C(/C=C(C%13=O)/S/C(N%13CC)=C(C#N)\C#N)S%12)=C%11)C=C1,-0.20938295384033007,0.12646488266590633,0.3358478365062364
DTBT(TDPP)2,CC1=CC=C(C(N(CC(CCCC)CC)C2=O)=C3C2=C(C4=CC=CS4)N(CC(CCCC)CC)C3=O)S1,-0.179847530784096,0.1594187243000923,0.3392662550841883
DTfBT(TDPP)2,CCCCC(CC)CN(C1=O)C(C2=CC=C(C3=CC=C(C4=CC=C(C5=C(F)C(F)=C(C6=CC=C(C7=CC=C(C8=CC=C(S8)C(N(C9=O)CC(CC)CCCC)=C%10C9=C(N(C%10=O)CC(CC)CCCC)C%11=CC=CS%11)S7)S6)C%12=NSN=C5%12)S4)S3)S2)=C%13C1=C(N(C%13=O)CC(CC)CCCC)C%14=CC=CS%14,-0.16489270488273872,0.10988825425070448,0.2747809591334432
ITIC,O=C1C(C=CC=C2)=C2C(/C1=C/C3=CC4=C(C(C(C5=C6C=C(C7=C5)C(C8=CC=C(CCCCCC)C=C8)(C9=CC=C(CCCCCC)C=C9)C%10C7SC%11=C%10SC(/C=C%12C(C(C=CC=C%13)=C%13C\%12=C(C#N)\C#N)=O)=C%11)(C%14=CC=C(CCCCCC)C=C%14)C%15=CC=C(CCCCCC)C=C%15)C6S4)S3)=C(C#N)/C#N,-0.20725988364471246,0.11464951041028192,0.32190939405499436
IC-1IDT-IC,CCCCCCC1=CC=C(C(C2=CC=C(C=C2)CCCCCC)(C3=C4C=C(C5=C3)C(C6=CC=C(C=C6)CCCCCC)(C7C5SC(/C=C(C(C8=C9C=CC=C8)=O)\C9=C(C#N)/C#N)=C7)C%10=CC=C(C=C%10)CCCCCC)C%11C4SC(/C=C(C(C%12=C%13C=CC=C%12)=O)/C%13=C(C#N)\C#N)=C%11)C=C1,-0.23021674438426568,0.12065690138225088,0.3508736457665166
IC-2IDT-IC,CCCCCCC1=CC=C(C(C2=CC=C(C=C2)CCCCCC)(C3=C4C=C(C5=C3)C(C6=CC=C(C=C6)CCCCCC)(C7C5SC(/C=C(C(C8=C9C=CC=C8)=O)\C9=C(C#N)/C#N)=C7)C%10=CC=C(C=C%10)CCCCCC)C%11C4SC(C%12=CC(C%13S%12)C(C%14=CC=C(C=C%14)CCCCCC)(C%15=CC=C(C=C%15)CCCCCC)C(C%13=C%16)=CC%17=C%16C(C%18C%17SC(/C=C(C(C%19=C%20C=CC=C%19)=O)/C%20=C(C#N)\C#N)=C%18)(C%21=CC=C(C=C%21)CCCCCC)C%22=CC=C(C=C%22)CCCCCC)=C%11)C=C1,-0.21591772817941188,0.12325871029398883,0.33917643847340073
IDIC,O=C1C2=C(C(/C1=C/C3=CC(C4S3)C(CCCCCC)(C5=C4C=C(C6=C5)C(CCCCCC)(C7C6SC(/C=C(C(C8=C9C=CC=C8)=O)/C9=C(C#N)\C#N)=C7)CCCCCC)CCCCCC)=C(C#N)/C#N)C=CC=C2,-0.22372594399711815,0.12312688682256369,0.3468528308196818
CDTDI,CCC(CC(CC(CC)CCCC)(C1=C2SC(C3=CC=C(/C=C(C(C4=C5C=CC=C4)=O)/C5=C(C#N)\C#N)S3)=C1)C6=C2SC(C7=CC=C(/C=C(C(C8=C9C=CC=C8)=O)/C9=C(C#N)\C#N)S7)=C6)CCCC,-0.16586358932836445,0.11186121389953749,0.27772480322790194
N7,CCCCCCCCC(N1C2=C(C3=CC=C(C(S4)=CC=C4C(N(C5=O)CC(CC)CCCC)=C6C5=C(N(C6=O)CC(CC)CCCC)C7=CC=CS7)C=C31)C=CC(C(S8)=CC=C8C(N(C9=O)CC(CC)CCCC)=C%10C9=C(N(C%10=O)CC(CC)CCCC)C%11=CC=CS%11)=C2)CCCCCCCC,-0.16661110307045163,0.14686774350956297,0.31347884658001457
TT-BBAR,CCCCN(C(N1CCCC)=O)C(C(C1=O)=CC2=CC=C(C3=CC=C(C=C(C4=O)C(N(C(N4CCCC)=O)CCCC)=O)S3)S2)=O,-0.20185092177911115,0.13133354820808202,0.3331844699871932
IDT-BC6,CCCCCCC1=CC=C(C=C1)C(C2=C3C=C(C(C4C5SC(C6=C(C=C(/C=C(\C7=C(C#N)/C#N)C(C8=C7C=CC=C8)=O)C(CCCCCCCC)=C6)CCCCCCCC)=C4)(C9=CC=C(CCCCCC)C=C9)C%10=CC=C(CCCCCC)C=C%10)C5=C2)(C%11C3SC(C%12=C(C=C(/C=C(\C%13=C(C#N)/C#N)C(C%14=C%13C=CC=C%14)=O)C(CCCCCCCC)=C%12)CCCCCCCC)=C%11)C%15=CC=C(CCCCCC)C=C%15,-0.2163854817102368,0.1236981633990399,0.3400836451092767
IDT-BOC6,CCCCCCC1=CC=C(C=C1)C(C2=C3C=C(C(C4C5SC(C6=C(C=C(/C=C(\C7=C(C#N)/C#N)C(C8=C7C=CC=C8)=O)C(OCCCCCCCC)=C6)OCCCCCCCC)=C4)(C9=CC=C(CCCCCC)C=C9)C%10=CC=C(CCCCCC)C=C%10)C5=C2)(C%11C3SC(C%12=CC(OCCCCCCCC)=C(/C=C(\C%13=C(C#N)/C#N)C(C%14=C%13C=CC=C%14)=O)C=C%12OCCCCCCCC)=C%11)C%15=CC=C(CCCCCC)C=C%15,-0.2028285498727522,0.126288707819002,0.3291172576917542
IDTIDT-IC,CCCCCCC1=CC=C(C(C2=CC=C(C=C2)CCCCCC)(C3=C4C=C(C5=C3)C(C6=CC=C(C=C6)CCCCCC)(C7C5SC(/C=C(C(C8=C9C=CC=C8)=O)/C9=C(C#N)\C#N)=C7)C%10=CC=C(C=C%10)CCCCCC)C%11=C4SC%12=C%11SC%13=C%12C(C%14=CC=C(C=C%14)CCCCCC)(C%15=CC%16=C(C=C%15%13)C(C%17=CC=C(C=C%17)CCCCCC)(C%18C%16SC(/C=C(C(C%19=C%20C=CC=C%19)=O)/C%20=C(C#N)\C#N)=C%18)C%21=CC=C(C=C%21)CCCCCC)C%22=CC=C(C=C%22)CCCCCC)C=C1,-0.16999320868223816,0.11969229368527591,0.28968550236751406
IDT-Tz,O=C1C2=C(C(/C1=C/C3=CN=C(C4=CC(C5S4)C(C6=CC=C(C=C6)CCCCCC)(C7=CC=C(C=C7)CCCCCC)C(C5=C8)=CC9=C8C(C%10C9SC(C%11=NC=C(/C=C(C(C%12=C%13C=CC=C%12)=O)/C%13=C(C#N)\C#N)S%11)=C%10)(C%14=CC=C(C=C%14)CCCCCC)C%15=CC=C(C=C%15)CCCCCC)S3)=C(C#N)/C#N)C=CC=C2,-0.21395438814695844,0.11156266305217985,0.3255170511991383
FDNCTF,CCCCCCCCC1(C2=C(C3=CC4=C(C=C31)C5=C(C4(CCCCCCCC)CCCCCCCC)C=C(/C=C(C(C6=C7C=C8C(C=CC=C8)=C6)=O)/C7=C(C#N)\C#N)S5)C=C(C9=C2)C(CCCCCCCC)(C%10=C9SC(/C=C(C(C%11=C%12C=C%13C(C=CC=C%13)=C%11)=O)/C%12=C(C#N)\C#N)=C%10)CCCCCCCC)CCCCCCCC,-0.17866435417652513,0.11326417784698761,0.29192853202351277
IEIC,CCCCCCC1=CC=C(C(C2=CC=C(C=C2)CCCCCC)(C3=C4C=C(C5=C3)C(C6=CC=C(C=C6)CCCCCC)(C7C5SC(C8=C(C=C(/C=C(C(C9=C%10C=CC=C9)=O)\C%10=C(C#N)/C#N)S8)CC(CC)CCCC)=C7)C%11=CC=C(C=C%11)CCCCCC)C%12C4SC(C%13=C(C=C(/C=C(C(C%14=C%15C=CC=C%14)=O)\C%15=C(C#N)/C#N)S%13)CC(CC)CCCC)=C%12)C=C1,-0.20711903530445147,0.11736666763676172,0.3244857029412132
IHIC-N,CCCCCCCCC1(C2=C(C3=C4C(C5=C(C=C4)C(CCCCCCCC)(CCCCCCCC)C6=C5SC(/C=C(C(C7=C8C=CC=C7)=O)/C8=C(C#N)\C#N)=C6)=CC=C31)SC(/C=C(C(C9=C%10C=CC=C9)=O)/C%10=C(C#N)\C#N)=C2)CCCCCCCC,-0.17552314058780724,0.11536509299290858,0.2908882335807158
INIC,CCCCCCC1=CC=C(C(C2=CC=C(C=C2)CCCCCC)(C3=C4C=C(C5=C3)C(C6=CC=C(C=C6)CCCCCC)(C7C5SC8=C7SC9=C8SC(/C=C(C(C%10=C%11C=CC=C%10)=O)/C%11=C(C#N)\C#N)=C9)C%12=CC=C(C=C%12)CCCCCC)C%13C4SC%14=C%13SC%15=C%14SC(/C=C(C(C%16=C%17C=CC=C%16)=O)/C%17=C(C#N)\C#N)=C%15)C=C1,-0.19188902356625753,0.11179164643760454,0.30368067000386206
INIC1,CCCCCCC1=CC=C(C(C2=CC=C(C=C2)CCCCCC)(C3=C4C=C(C5=C3)C(C6=CC=C(C=C6)CCCCCC)(C7C5SC8=C7SC9=C8SC(/C=C(C(C%10=C%11C=CC=C%10F)=O)/C%11=C(C#N)\C#N)=C9)C%12=CC=C(C=C%12)CCCCCC)C%13C4SC%14=C%13SC%15=C%14SC(/C=C(C(C%16=C%17C=CC=C%16F)=O)/C%17=C(C#N)\C#N)=C%15)C=C1,-0.19368066401197725,0.1127080665789375,0.30638873059091476
INIC2,CCCCCCC1=CC=C(C(C2=CC=C(C=C2)CCCCCC)(C3=C4C=C(C5=C3)C(C6=CC=C(C=C6)CCCCCC)(C7C5SC8=C7SC9=C8SC(/C=C(C(C%10=C%11C=C(F)C=C%10)=O)/C%11=C(C#N)\C#N)=C9)C%12=CC=C(C=C%12)CCCCCC)C%13C4SC%14=C%13SC%15=C%14SC(/C=C(C(C%16=C%17C=C(F)C=C%16)=O)/C%17=C(C#N)\C#N)=C%15)C=C1,-0.19155020882057625,0.11265178355684237,0.30420199237741863
TT-OBAR,CCCCCCCCN(C(N1CCCCCCCC)=O)C(C(C1=O)=CC2=CC=C(C3=CC=C(C=C(C4=O)C(N(C(N4CCCCCCCC)=O)CCCCCCCC)=O)S3)S2)=O,-0.20195361849321294,0.13127932164213554,0.3332329401353485
INIC3,CCCCCCC1=CC=C(C(C2=CC=C(C=C2)CCCCCC)(C3=C4C=C(C5=C3)C(C6=CC=C(C=C6)CCCCCC)(C7C5SC8=C7SC9=C8SC(/C=C(C(C%10=C%11C=C(F)C(F)=C%10)=O)/C%11=C(C#N)\C#N)=C9)C%12=CC=C(C=C%12)CCCCCC)C%13C4SC%14=C%13SC%15=C%14SC(/C=C(C(C%16=C%17C=C(F)C(F)=C%16)=O)/C%17=C(C#N)\C#N)=C%15)C=C1,-0.1937682852889273,0.1053225067871317,0.29909079207605904
ITIC,CCCCCCC1=CC=C(C(C2=CC=C(C=C2)CCCCCC)(C3=C4C=C(C5=C3)C(C6=CC=C(C=C6)CCCCCC)(C7C5SC8=C7SC(/C=C(C(C9=C%10C=CC=C9)=O)/C%10=C(C#N)\C#N)=C8)C%11=CC=C(C=C%11)CCCCCC)C%12C4SC%13=C%12SC(/C=C(C(C%14=C%15C=CC=C%14)=O)/C%15=C(C#N)\C#N)=C%13)C=C1,-0.20804429241317088,0.11697429268269027,0.3250185850958611